# Compiler 
CC=gcc

# .c Source code file
SRC=main.c school.c

# Object files
OBJ=$(SRC:.c=.o)

# Name of executable school
Name=school

# Compiler flags 
CFLAGS=-Wall -Werror -Wextra -pedantic

# Mark phony
.PHONY: all clean oclean fclean re

# 
all: $(OBJ) m.h
	$(CC) $(OBJ) -o $(NAME)

# Deletes all Emacs and Vim temporary files along with the executable
clean:
	$(RM) $(wildcard *~) $(wildcard *.swp) $(NAME)

# Deletes the object files
oclean:
	$(RM) $(OBJ)

# Deletes all Emacs and Vim temporary files, the executable, and the object files
fclean: clean oclean

# Forces recompilation of all source files
re: oclean all
